n -t 0 -s 0 -S DLABEL -l "Client-0" -L ""
n -t 0 -s 1 -S DLABEL -l "Client-1" -L ""
n -t 0 -s 2 -S DLABEL -l "Client-2" -L ""
n -t 0 -s 3 -S DLABEL -l "Client-3" -L ""
n -t 0 -s 5 -S DLABEL -l "Server" -L ""
m -t 0 -s 5 -n ServerMark -c blue -h circle
V -t * -v 1.0a5 -a 0
A -t * -n 1 -p 0 -o 0x7fffffff -c 30 -a 1
A -t * -h 1 -m 1073741823 -s 0
n -t * -a 0 -s 0 -S UP -v circle -c #088A08 -i #088A08
n -t * -a 5 -s 5 -S UP -v circle -c black -i black
n -t * -a 1 -s 1 -S UP -v circle -c #088A08 -i #088A08
n -t * -a 2 -s 2 -S UP -v circle -c #088A08 -i #088A08
n -t * -a 3 -s 3 -S UP -v circle -c #088A08 -i #088A08
l -t * -s 5 -d 0 -S UP -r 2000000 -D 0.002 -c black -o right
X -t * -n 4 -r 10Mb -D 1ms -o left
L -t * -s 4 -d 0 -o up
L -t * -s 4 -d 1 -o down
L -t * -s 4 -d 2 -o up
L -t * -s 4 -d 3 -o down
+ -t 0 -s 5 -d 0 -p tcp -e 40 -c 0 -i 0 -a 0 -x {5.0 2.0 0 ------- null}
- -t 0 -s 5 -d 0 -p tcp -e 40 -c 0 -i 0 -a 0 -x {5.0 2.0 0 ------- null}
h -t 0 -s 5 -d 0 -p tcp -e 40 -c 0 -i 0 -a 0 -x {5.0 2.0 -1 ------- null}
r -t 0.00216 -s 5 -d 0 -p tcp -e 40 -c 0 -i 0 -a 0 -x {5.0 2.0 0 ------- null}
h -t 0.00216 -s 0 -d 4 -p tcp -e 40 -c 0 -i 0 -a 0 -x {5.0 2.0 0 ------- null}
+ -t 0.00316 -s 0 -d 4 -p tcp -e 40 -c 0 -i 0 -a 0 -x {5.0 2.0 0 ------- null}
- -t 0.00316 -s 0 -d 4 -p tcp -e 40 -c 0 -i 0 -a 0 -x {5.0 2.0 0 ------- null}
h -t 0.00316 -s 0 -d 4 -p tcp -e 40 -c 0 -i 0 -a 0 -x {5.0 2.0 -1 ------- null}
r -t 0.0042152 -s 4 -d 2 -p tcp -e 40 -c 0 -i 0 -a 0 -x {5.0 2.0 0 ------- null}
h -t 0.0042152 -s 2 -d 4 -p ack -e 40 -c 0 -i 1 -a 0 -x {2.0 5.0 0 ------- null}
+ -t 0.0052152 -s 2 -d 4 -p ack -e 40 -c 0 -i 1 -a 0 -x {2.0 5.0 0 ------- null}
- -t 0.0052152 -s 2 -d 4 -p ack -e 40 -c 0 -i 1 -a 0 -x {2.0 5.0 0 ------- null}
h -t 0.0052152 -s 2 -d 4 -p ack -e 40 -c 0 -i 1 -a 0 -x {2.0 5.0 -1 ------- null}
r -t 0.0062704 -s 4 -d 0 -p ack -e 40 -c 0 -i 1 -a 0 -x {2.0 5.0 0 ------- null}
+ -t 0.0062704 -s 0 -d 5 -p ack -e 40 -c 0 -i 1 -a 0 -x {2.0 5.0 0 ------- null}
- -t 0.0062704 -s 0 -d 5 -p ack -e 40 -c 0 -i 1 -a 0 -x {2.0 5.0 0 ------- null}
h -t 0.0062704 -s 0 -d 5 -p ack -e 40 -c 0 -i 1 -a 0 -x {2.0 5.0 -1 ------- null}
r -t 0.0084304 -s 0 -d 5 -p ack -e 40 -c 0 -i 1 -a 0 -x {2.0 5.0 0 ------- null}
+ -t 0.0084304 -s 5 -d 0 -p tcp -e 1040 -c 0 -i 2 -a 0 -x {5.0 2.0 1 ------- null}
- -t 0.0084304 -s 5 -d 0 -p tcp -e 1040 -c 0 -i 2 -a 0 -x {5.0 2.0 1 ------- null}
h -t 0.0084304 -s 5 -d 0 -p tcp -e 1040 -c 0 -i 2 -a 0 -x {5.0 2.0 -1 ------- null}
+ -t 0.0084304 -s 5 -d 0 -p tcp -e 1040 -c 0 -i 3 -a 0 -x {5.0 2.0 2 ------- null}
- -t 0.0125904 -s 5 -d 0 -p tcp -e 1040 -c 0 -i 3 -a 0 -x {5.0 2.0 2 ------- null}
h -t 0.0125904 -s 5 -d 0 -p tcp -e 1040 -c 0 -i 3 -a 0 -x {5.0 2.0 -1 ------- null}
r -t 0.0145904 -s 5 -d 0 -p tcp -e 1040 -c 0 -i 2 -a 0 -x {5.0 2.0 1 ------- null}
h -t 0.0145904 -s 0 -d 4 -p tcp -e 1040 -c 0 -i 2 -a 0 -x {5.0 2.0 1 ------- null}
+ -t 0.0155904 -s 0 -d 4 -p tcp -e 1040 -c 0 -i 2 -a 0 -x {5.0 2.0 1 ------- null}
- -t 0.0155904 -s 0 -d 4 -p tcp -e 1040 -c 0 -i 2 -a 0 -x {5.0 2.0 1 ------- null}
h -t 0.0155904 -s 0 -d 4 -p tcp -e 1040 -c 0 -i 2 -a 0 -x {5.0 2.0 -1 ------- null}
r -t 0.0174376 -s 4 -d 2 -p tcp -e 1040 -c 0 -i 2 -a 0 -x {5.0 2.0 1 ------- null}
h -t 0.0174376 -s 2 -d 4 -p ack -e 40 -c 0 -i 4 -a 0 -x {2.0 5.0 1 ------- null}
+ -t 0.0184376 -s 2 -d 4 -p ack -e 40 -c 0 -i 4 -a 0 -x {2.0 5.0 1 ------- null}
- -t 0.0184376 -s 2 -d 4 -p ack -e 40 -c 0 -i 4 -a 0 -x {2.0 5.0 1 ------- null}
h -t 0.0184376 -s 2 -d 4 -p ack -e 40 -c 0 -i 4 -a 0 -x {2.0 5.0 -1 ------- null}
r -t 0.0187504 -s 5 -d 0 -p tcp -e 1040 -c 0 -i 3 -a 0 -x {5.0 2.0 2 ------- null}
h -t 0.0187504 -s 0 -d 4 -p tcp -e 1040 -c 0 -i 3 -a 0 -x {5.0 2.0 2 ------- null}
r -t 0.0194928 -s 4 -d 0 -p ack -e 40 -c 0 -i 4 -a 0 -x {2.0 5.0 1 ------- null}
+ -t 0.0194928 -s 0 -d 5 -p ack -e 40 -c 0 -i 4 -a 0 -x {2.0 5.0 1 ------- null}
- -t 0.0194928 -s 0 -d 5 -p ack -e 40 -c 0 -i 4 -a 0 -x {2.0 5.0 1 ------- null}
h -t 0.0194928 -s 0 -d 5 -p ack -e 40 -c 0 -i 4 -a 0 -x {2.0 5.0 -1 ------- null}
+ -t 0.0197504 -s 0 -d 4 -p tcp -e 1040 -c 0 -i 3 -a 0 -x {5.0 2.0 2 ------- null}
- -t 0.0197504 -s 0 -d 4 -p tcp -e 1040 -c 0 -i 3 -a 0 -x {5.0 2.0 2 ------- null}
h -t 0.0197504 -s 0 -d 4 -p tcp -e 1040 -c 0 -i 3 -a 0 -x {5.0 2.0 -1 ------- null}
r -t 0.0215976 -s 4 -d 2 -p tcp -e 1040 -c 0 -i 3 -a 0 -x {5.0 2.0 2 ------- null}
h -t 0.0215976 -s 2 -d 4 -p ack -e 40 -c 0 -i 5 -a 0 -x {2.0 5.0 2 ------- null}
r -t 0.0216528 -s 0 -d 5 -p ack -e 40 -c 0 -i 4 -a 0 -x {2.0 5.0 1 ------- null}
+ -t 0.0216528 -s 5 -d 0 -p tcp -e 1040 -c 0 -i 6 -a 0 -x {5.0 2.0 3 ------- null}
- -t 0.0216528 -s 5 -d 0 -p tcp -e 1040 -c 0 -i 6 -a 0 -x {5.0 2.0 3 ------- null}
h -t 0.0216528 -s 5 -d 0 -p tcp -e 1040 -c 0 -i 6 -a 0 -x {5.0 2.0 -1 ------- null}
+ -t 0.0216528 -s 5 -d 0 -p tcp -e 1040 -c 0 -i 7 -a 0 -x {5.0 2.0 4 ------- null}
+ -t 0.0225976 -s 2 -d 4 -p ack -e 40 -c 0 -i 5 -a 0 -x {2.0 5.0 2 ------- null}
- -t 0.0225976 -s 2 -d 4 -p ack -e 40 -c 0 -i 5 -a 0 -x {2.0 5.0 2 ------- null}
h -t 0.0225976 -s 2 -d 4 -p ack -e 40 -c 0 -i 5 -a 0 -x {2.0 5.0 -1 ------- null}
r -t 0.0236528 -s 4 -d 0 -p ack -e 40 -c 0 -i 5 -a 0 -x {2.0 5.0 2 ------- null}
+ -t 0.0236528 -s 0 -d 5 -p ack -e 40 -c 0 -i 5 -a 0 -x {2.0 5.0 2 ------- null}
- -t 0.0236528 -s 0 -d 5 -p ack -e 40 -c 0 -i 5 -a 0 -x {2.0 5.0 2 ------- null}
h -t 0.0236528 -s 0 -d 5 -p ack -e 40 -c 0 -i 5 -a 0 -x {2.0 5.0 -1 ------- null}
- -t 0.0258128 -s 5 -d 0 -p tcp -e 1040 -c 0 -i 7 -a 0 -x {5.0 2.0 4 ------- null}
h -t 0.0258128 -s 5 -d 0 -p tcp -e 1040 -c 0 -i 7 -a 0 -x {5.0 2.0 -1 ------- null}
r -t 0.0258128 -s 0 -d 5 -p ack -e 40 -c 0 -i 5 -a 0 -x {2.0 5.0 2 ------- null}
+ -t 0.0258128 -s 5 -d 0 -p tcp -e 1040 -c 0 -i 8 -a 0 -x {5.0 2.0 5 ------- null}
+ -t 0.0258128 -s 5 -d 0 -p tcp -e 1040 -c 0 -i 9 -a 0 -x {5.0 2.0 6 ------- null}
r -t 0.0278128 -s 5 -d 0 -p tcp -e 1040 -c 0 -i 6 -a 0 -x {5.0 2.0 3 ------- null}
h -t 0.0278128 -s 0 -d 4 -p tcp -e 1040 -c 0 -i 6 -a 0 -x {5.0 2.0 3 ------- null}
+ -t 0.0288128 -s 0 -d 4 -p tcp -e 1040 -c 0 -i 6 -a 0 -x {5.0 2.0 3 ------- null}
- -t 0.0288128 -s 0 -d 4 -p tcp -e 1040 -c 0 -i 6 -a 0 -x {5.0 2.0 3 ------- null}
h -t 0.0288128 -s 0 -d 4 -p tcp -e 1040 -c 0 -i 6 -a 0 -x {5.0 2.0 -1 ------- null}
- -t 0.0299728 -s 5 -d 0 -p tcp -e 1040 -c 0 -i 8 -a 0 -x {5.0 2.0 5 ------- null}
h -t 0.0299728 -s 5 -d 0 -p tcp -e 1040 -c 0 -i 8 -a 0 -x {5.0 2.0 -1 ------- null}
r -t 0.03066 -s 4 -d 2 -p tcp -e 1040 -c 0 -i 6 -a 0 -x {5.0 2.0 3 ------- null}
h -t 0.03066 -s 2 -d 4 -p ack -e 40 -c 0 -i 10 -a 0 -x {2.0 5.0 3 ------- null}
+ -t 0.03166 -s 2 -d 4 -p ack -e 40 -c 0 -i 10 -a 0 -x {2.0 5.0 3 ------- null}
- -t 0.03166 -s 2 -d 4 -p ack -e 40 -c 0 -i 10 -a 0 -x {2.0 5.0 3 ------- null}
h -t 0.03166 -s 2 -d 4 -p ack -e 40 -c 0 -i 10 -a 0 -x {2.0 5.0 -1 ------- null}
r -t 0.0319728 -s 5 -d 0 -p tcp -e 1040 -c 0 -i 7 -a 0 -x {5.0 2.0 4 ------- null}
h -t 0.0319728 -s 0 -d 4 -p tcp -e 1040 -c 0 -i 7 -a 0 -x {5.0 2.0 4 ------- null}
r -t 0.0327152 -s 4 -d 0 -p ack -e 40 -c 0 -i 10 -a 0 -x {2.0 5.0 3 ------- null}
+ -t 0.0327152 -s 0 -d 5 -p ack -e 40 -c 0 -i 10 -a 0 -x {2.0 5.0 3 ------- null}
- -t 0.0327152 -s 0 -d 5 -p ack -e 40 -c 0 -i 10 -a 0 -x {2.0 5.0 3 ------- null}
h -t 0.0327152 -s 0 -d 5 -p ack -e 40 -c 0 -i 10 -a 0 -x {2.0 5.0 -1 ------- null}
+ -t 0.0329728 -s 0 -d 4 -p tcp -e 1040 -c 0 -i 7 -a 0 -x {5.0 2.0 4 ------- null}
- -t 0.0329728 -s 0 -d 4 -p tcp -e 1040 -c 0 -i 7 -a 0 -x {5.0 2.0 4 ------- null}
h -t 0.0329728 -s 0 -d 4 -p tcp -e 1040 -c 0 -i 7 -a 0 -x {5.0 2.0 -1 ------- null}
- -t 0.0341328 -s 5 -d 0 -p tcp -e 1040 -c 0 -i 9 -a 0 -x {5.0 2.0 6 ------- null}
h -t 0.0341328 -s 5 -d 0 -p tcp -e 1040 -c 0 -i 9 -a 0 -x {5.0 2.0 -1 ------- null}
r -t 0.03482 -s 4 -d 2 -p tcp -e 1040 -c 0 -i 7 -a 0 -x {5.0 2.0 4 ------- null}
h -t 0.03482 -s 2 -d 4 -p ack -e 40 -c 0 -i 11 -a 0 -x {2.0 5.0 4 ------- null}
r -t 0.0348752 -s 0 -d 5 -p ack -e 40 -c 0 -i 10 -a 0 -x {2.0 5.0 3 ------- null}
+ -t 0.0348752 -s 5 -d 0 -p tcp -e 1040 -c 0 -i 12 -a 0 -x {5.0 2.0 7 ------- null}
+ -t 0.0348752 -s 5 -d 0 -p tcp -e 1040 -c 0 -i 13 -a 0 -x {5.0 2.0 8 ------- null}
+ -t 0.03582 -s 2 -d 4 -p ack -e 40 -c 0 -i 11 -a 0 -x {2.0 5.0 4 ------- null}
- -t 0.03582 -s 2 -d 4 -p ack -e 40 -c 0 -i 11 -a 0 -x {2.0 5.0 4 ------- null}
h -t 0.03582 -s 2 -d 4 -p ack -e 40 -c 0 -i 11 -a 0 -x {2.0 5.0 -1 ------- null}
r -t 0.0361328 -s 5 -d 0 -p tcp -e 1040 -c 0 -i 8 -a 0 -x {5.0 2.0 5 ------- null}
h -t 0.0361328 -s 0 -d 4 -p tcp -e 1040 -c 0 -i 8 -a 0 -x {5.0 2.0 5 ------- null}
r -t 0.0368752 -s 4 -d 0 -p ack -e 40 -c 0 -i 11 -a 0 -x {2.0 5.0 4 ------- null}
+ -t 0.0368752 -s 0 -d 5 -p ack -e 40 -c 0 -i 11 -a 0 -x {2.0 5.0 4 ------- null}
- -t 0.0368752 -s 0 -d 5 -p ack -e 40 -c 0 -i 11 -a 0 -x {2.0 5.0 4 ------- null}
h -t 0.0368752 -s 0 -d 5 -p ack -e 40 -c 0 -i 11 -a 0 -x {2.0 5.0 -1 ------- null}
+ -t 0.0371328 -s 0 -d 4 -p tcp -e 1040 -c 0 -i 8 -a 0 -x {5.0 2.0 5 ------- null}
- -t 0.0371328 -s 0 -d 4 -p tcp -e 1040 -c 0 -i 8 -a 0 -x {5.0 2.0 5 ------- null}
h -t 0.0371328 -s 0 -d 4 -p tcp -e 1040 -c 0 -i 8 -a 0 -x {5.0 2.0 -1 ------- null}
- -t 0.0382928 -s 5 -d 0 -p tcp -e 1040 -c 0 -i 12 -a 0 -x {5.0 2.0 7 ------- null}
h -t 0.0382928 -s 5 -d 0 -p tcp -e 1040 -c 0 -i 12 -a 0 -x {5.0 2.0 -1 ------- null}
r -t 0.03898 -s 4 -d 2 -p tcp -e 1040 -c 0 -i 8 -a 0 -x {5.0 2.0 5 ------- null}
h -t 0.03898 -s 2 -d 4 -p ack -e 40 -c 0 -i 14 -a 0 -x {2.0 5.0 5 ------- null}
r -t 0.0390352 -s 0 -d 5 -p ack -e 40 -c 0 -i 11 -a 0 -x {2.0 5.0 4 ------- null}
+ -t 0.0390352 -s 5 -d 0 -p tcp -e 1040 -c 0 -i 15 -a 0 -x {5.0 2.0 9 ------- null}
+ -t 0.0390352 -s 5 -d 0 -p tcp -e 1040 -c 0 -i 16 -a 0 -x {5.0 2.0 10 ------- null}
+ -t 0.03998 -s 2 -d 4 -p ack -e 40 -c 0 -i 14 -a 0 -x {2.0 5.0 5 ------- null}
- -t 0.03998 -s 2 -d 4 -p ack -e 40 -c 0 -i 14 -a 0 -x {2.0 5.0 5 ------- null}
h -t 0.03998 -s 2 -d 4 -p ack -e 40 -c 0 -i 14 -a 0 -x {2.0 5.0 -1 ------- null}
r -t 0.0402928 -s 5 -d 0 -p tcp -e 1040 -c 0 -i 9 -a 0 -x {5.0 2.0 6 ------- null}
h -t 0.0402928 -s 0 -d 4 -p tcp -e 1040 -c 0 -i 9 -a 0 -x {5.0 2.0 6 ------- null}
r -t 0.0410352 -s 4 -d 0 -p ack -e 40 -c 0 -i 14 -a 0 -x {2.0 5.0 5 ------- null}
+ -t 0.0410352 -s 0 -d 5 -p ack -e 40 -c 0 -i 14 -a 0 -x {2.0 5.0 5 ------- null}
- -t 0.0410352 -s 0 -d 5 -p ack -e 40 -c 0 -i 14 -a 0 -x {2.0 5.0 5 ------- null}
h -t 0.0410352 -s 0 -d 5 -p ack -e 40 -c 0 -i 14 -a 0 -x {2.0 5.0 -1 ------- null}
+ -t 0.0412928 -s 0 -d 4 -p tcp -e 1040 -c 0 -i 9 -a 0 -x {5.0 2.0 6 ------- null}
- -t 0.0412928 -s 0 -d 4 -p tcp -e 1040 -c 0 -i 9 -a 0 -x {5.0 2.0 6 ------- null}
h -t 0.0412928 -s 0 -d 4 -p tcp -e 1040 -c 0 -i 9 -a 0 -x {5.0 2.0 -1 ------- null}
- -t 0.0424528 -s 5 -d 0 -p tcp -e 1040 -c 0 -i 13 -a 0 -x {5.0 2.0 8 ------- null}
h -t 0.0424528 -s 5 -d 0 -p tcp -e 1040 -c 0 -i 13 -a 0 -x {5.0 2.0 -1 ------- null}
r -t 0.04314 -s 4 -d 2 -p tcp -e 1040 -c 0 -i 9 -a 0 -x {5.0 2.0 6 ------- null}
h -t 0.04314 -s 2 -d 4 -p ack -e 40 -c 0 -i 17 -a 0 -x {2.0 5.0 6 ------- null}
r -t 0.0431952 -s 0 -d 5 -p ack -e 40 -c 0 -i 14 -a 0 -x {2.0 5.0 5 ------- null}
+ -t 0.0431952 -s 5 -d 0 -p tcp -e 1040 -c 0 -i 18 -a 0 -x {5.0 2.0 11 ------- null}
+ -t 0.0431952 -s 5 -d 0 -p tcp -e 1040 -c 0 -i 19 -a 0 -x {5.0 2.0 12 ------- null}
+ -t 0.04414 -s 2 -d 4 -p ack -e 40 -c 0 -i 17 -a 0 -x {2.0 5.0 6 ------- null}
- -t 0.04414 -s 2 -d 4 -p ack -e 40 -c 0 -i 17 -a 0 -x {2.0 5.0 6 ------- null}
h -t 0.04414 -s 2 -d 4 -p ack -e 40 -c 0 -i 17 -a 0 -x {2.0 5.0 -1 ------- null}
r -t 0.0444528 -s 5 -d 0 -p tcp -e 1040 -c 0 -i 12 -a 0 -x {5.0 2.0 7 ------- null}
h -t 0.0444528 -s 0 -d 4 -p tcp -e 1040 -c 0 -i 12 -a 0 -x {5.0 2.0 7 ------- null}
r -t 0.0451952 -s 4 -d 0 -p ack -e 40 -c 0 -i 17 -a 0 -x {2.0 5.0 6 ------- null}
+ -t 0.0451952 -s 0 -d 5 -p ack -e 40 -c 0 -i 17 -a 0 -x {2.0 5.0 6 ------- null}
- -t 0.0451952 -s 0 -d 5 -p ack -e 40 -c 0 -i 17 -a 0 -x {2.0 5.0 6 ------- null}
h -t 0.0451952 -s 0 -d 5 -p ack -e 40 -c 0 -i 17 -a 0 -x {2.0 5.0 -1 ------- null}
+ -t 0.0454528 -s 0 -d 4 -p tcp -e 1040 -c 0 -i 12 -a 0 -x {5.0 2.0 7 ------- null}
- -t 0.0454528 -s 0 -d 4 -p tcp -e 1040 -c 0 -i 12 -a 0 -x {5.0 2.0 7 ------- null}
h -t 0.0454528 -s 0 -d 4 -p tcp -e 1040 -c 0 -i 12 -a 0 -x {5.0 2.0 -1 ------- null}
- -t 0.0466128 -s 5 -d 0 -p tcp -e 1040 -c 0 -i 15 -a 0 -x {5.0 2.0 9 ------- null}
h -t 0.0466128 -s 5 -d 0 -p tcp -e 1040 -c 0 -i 15 -a 0 -x {5.0 2.0 -1 ------- null}
r -t 0.0473 -s 4 -d 2 -p tcp -e 1040 -c 0 -i 12 -a 0 -x {5.0 2.0 7 ------- null}
h -t 0.0473 -s 2 -d 4 -p ack -e 40 -c 0 -i 20 -a 0 -x {2.0 5.0 7 ------- null}
r -t 0.0473552 -s 0 -d 5 -p ack -e 40 -c 0 -i 17 -a 0 -x {2.0 5.0 6 ------- null}
+ -t 0.0473552 -s 5 -d 0 -p tcp -e 1040 -c 0 -i 21 -a 0 -x {5.0 2.0 13 ------- null}
+ -t 0.0473552 -s 5 -d 0 -p tcp -e 1040 -c 0 -i 22 -a 0 -x {5.0 2.0 14 ------- null}
+ -t 0.0483 -s 2 -d 4 -p ack -e 40 -c 0 -i 20 -a 0 -x {2.0 5.0 7 ------- null}
- -t 0.0483 -s 2 -d 4 -p ack -e 40 -c 0 -i 20 -a 0 -x {2.0 5.0 7 ------- null}
h -t 0.0483 -s 2 -d 4 -p ack -e 40 -c 0 -i 20 -a 0 -x {2.0 5.0 -1 ------- null}
r -t 0.0486128 -s 5 -d 0 -p tcp -e 1040 -c 0 -i 13 -a 0 -x {5.0 2.0 8 ------- null}
h -t 0.0486128 -s 0 -d 4 -p tcp -e 1040 -c 0 -i 13 -a 0 -x {5.0 2.0 8 ------- null}
r -t 0.0493552 -s 4 -d 0 -p ack -e 40 -c 0 -i 20 -a 0 -x {2.0 5.0 7 ------- null}
+ -t 0.0493552 -s 0 -d 5 -p ack -e 40 -c 0 -i 20 -a 0 -x {2.0 5.0 7 ------- null}
- -t 0.0493552 -s 0 -d 5 -p ack -e 40 -c 0 -i 20 -a 0 -x {2.0 5.0 7 ------- null}
h -t 0.0493552 -s 0 -d 5 -p ack -e 40 -c 0 -i 20 -a 0 -x {2.0 5.0 -1 ------- null}
+ -t 0.0496128 -s 0 -d 4 -p tcp -e 1040 -c 0 -i 13 -a 0 -x {5.0 2.0 8 ------- null}
- -t 0.0496128 -s 0 -d 4 -p tcp -e 1040 -c 0 -i 13 -a 0 -x {5.0 2.0 8 ------- null}
h -t 0.0496128 -s 0 -d 4 -p tcp -e 1040 -c 0 -i 13 -a 0 -x {5.0 2.0 -1 ------- null}
- -t 0.0507728 -s 5 -d 0 -p tcp -e 1040 -c 0 -i 16 -a 0 -x {5.0 2.0 10 ------- null}
h -t 0.0507728 -s 5 -d 0 -p tcp -e 1040 -c 0 -i 16 -a 0 -x {5.0 2.0 -1 ------- null}
r -t 0.05146 -s 4 -d 2 -p tcp -e 1040 -c 0 -i 13 -a 0 -x {5.0 2.0 8 ------- null}
h -t 0.05146 -s 2 -d 4 -p ack -e 40 -c 0 -i 23 -a 0 -x {2.0 5.0 8 ------- null}
r -t 0.0515152 -s 0 -d 5 -p ack -e 40 -c 0 -i 20 -a 0 -x {2.0 5.0 7 ------- null}
+ -t 0.0515152 -s 5 -d 0 -p tcp -e 1040 -c 0 -i 24 -a 0 -x {5.0 2.0 15 ------- null}
+ -t 0.0515152 -s 5 -d 0 -p tcp -e 1040 -c 0 -i 25 -a 0 -x {5.0 2.0 16 ------- null}
+ -t 0.05246 -s 2 -d 4 -p ack -e 40 -c 0 -i 23 -a 0 -x {2.0 5.0 8 ------- null}
- -t 0.05246 -s 2 -d 4 -p ack -e 40 -c 0 -i 23 -a 0 -x {2.0 5.0 8 ------- null}
h -t 0.05246 -s 2 -d 4 -p ack -e 40 -c 0 -i 23 -a 0 -x {2.0 5.0 -1 ------- null}
r -t 0.0527728 -s 5 -d 0 -p tcp -e 1040 -c 0 -i 15 -a 0 -x {5.0 2.0 9 ------- null}
h -t 0.0527728 -s 0 -d 4 -p tcp -e 1040 -c 0 -i 15 -a 0 -x {5.0 2.0 9 ------- null}
r -t 0.0535152 -s 4 -d 0 -p ack -e 40 -c 0 -i 23 -a 0 -x {2.0 5.0 8 ------- null}
+ -t 0.0535152 -s 0 -d 5 -p ack -e 40 -c 0 -i 23 -a 0 -x {2.0 5.0 8 ------- null}
- -t 0.0535152 -s 0 -d 5 -p ack -e 40 -c 0 -i 23 -a 0 -x {2.0 5.0 8 ------- null}
h -t 0.0535152 -s 0 -d 5 -p ack -e 40 -c 0 -i 23 -a 0 -x {2.0 5.0 -1 ------- null}
+ -t 0.0537728 -s 0 -d 4 -p tcp -e 1040 -c 0 -i 15 -a 0 -x {5.0 2.0 9 ------- null}
- -t 0.0537728 -s 0 -d 4 -p tcp -e 1040 -c 0 -i 15 -a 0 -x {5.0 2.0 9 ------- null}
h -t 0.0537728 -s 0 -d 4 -p tcp -e 1040 -c 0 -i 15 -a 0 -x {5.0 2.0 -1 ------- null}
- -t 0.0549328 -s 5 -d 0 -p tcp -e 1040 -c 0 -i 18 -a 0 -x {5.0 2.0 11 ------- null}
h -t 0.0549328 -s 5 -d 0 -p tcp -e 1040 -c 0 -i 18 -a 0 -x {5.0 2.0 -1 ------- null}
r -t 0.05562 -s 4 -d 2 -p tcp -e 1040 -c 0 -i 15 -a 0 -x {5.0 2.0 9 ------- null}
h -t 0.05562 -s 2 -d 4 -p ack -e 40 -c 0 -i 26 -a 0 -x {2.0 5.0 9 ------- null}
r -t 0.0556752 -s 0 -d 5 -p ack -e 40 -c 0 -i 23 -a 0 -x {2.0 5.0 8 ------- null}
+ -t 0.0556752 -s 5 -d 0 -p tcp -e 1040 -c 0 -i 27 -a 0 -x {5.0 2.0 17 ------- null}
+ -t 0.0556752 -s 5 -d 0 -p tcp -e 1040 -c 0 -i 28 -a 0 -x {5.0 2.0 18 ------- null}
+ -t 0.05662 -s 2 -d 4 -p ack -e 40 -c 0 -i 26 -a 0 -x {2.0 5.0 9 ------- null}
- -t 0.05662 -s 2 -d 4 -p ack -e 40 -c 0 -i 26 -a 0 -x {2.0 5.0 9 ------- null}
h -t 0.05662 -s 2 -d 4 -p ack -e 40 -c 0 -i 26 -a 0 -x {2.0 5.0 -1 ------- null}
r -t 0.0569328 -s 5 -d 0 -p tcp -e 1040 -c 0 -i 16 -a 0 -x {5.0 2.0 10 ------- null}
h -t 0.0569328 -s 0 -d 4 -p tcp -e 1040 -c 0 -i 16 -a 0 -x {5.0 2.0 10 ------- null}
r -t 0.0576752 -s 4 -d 0 -p ack -e 40 -c 0 -i 26 -a 0 -x {2.0 5.0 9 ------- null}
+ -t 0.0576752 -s 0 -d 5 -p ack -e 40 -c 0 -i 26 -a 0 -x {2.0 5.0 9 ------- null}
- -t 0.0576752 -s 0 -d 5 -p ack -e 40 -c 0 -i 26 -a 0 -x {2.0 5.0 9 ------- null}
h -t 0.0576752 -s 0 -d 5 -p ack -e 40 -c 0 -i 26 -a 0 -x {2.0 5.0 -1 ------- null}
+ -t 0.0579328 -s 0 -d 4 -p tcp -e 1040 -c 0 -i 16 -a 0 -x {5.0 2.0 10 ------- null}
- -t 0.0579328 -s 0 -d 4 -p tcp -e 1040 -c 0 -i 16 -a 0 -x {5.0 2.0 10 ------- null}
h -t 0.0579328 -s 0 -d 4 -p tcp -e 1040 -c 0 -i 16 -a 0 -x {5.0 2.0 -1 ------- null}
- -t 0.0590928 -s 5 -d 0 -p tcp -e 1040 -c 0 -i 19 -a 0 -x {5.0 2.0 12 ------- null}
h -t 0.0590928 -s 5 -d 0 -p tcp -e 1040 -c 0 -i 19 -a 0 -x {5.0 2.0 -1 ------- null}
r -t 0.05978 -s 4 -d 2 -p tcp -e 1040 -c 0 -i 16 -a 0 -x {5.0 2.0 10 ------- null}
h -t 0.05978 -s 2 -d 4 -p ack -e 40 -c 0 -i 29 -a 0 -x {2.0 5.0 10 ------- null}
r -t 0.0598352 -s 0 -d 5 -p ack -e 40 -c 0 -i 26 -a 0 -x {2.0 5.0 9 ------- null}
+ -t 0.0598352 -s 5 -d 0 -p tcp -e 1040 -c 0 -i 30 -a 0 -x {5.0 2.0 19 ------- null}
+ -t 0.0598352 -s 5 -d 0 -p tcp -e 1040 -c 0 -i 31 -a 0 -x {5.0 2.0 20 ------- null}
+ -t 0.06078 -s 2 -d 4 -p ack -e 40 -c 0 -i 29 -a 0 -x {2.0 5.0 10 ------- null}
- -t 0.06078 -s 2 -d 4 -p ack -e 40 -c 0 -i 29 -a 0 -x {2.0 5.0 10 ------- null}
h -t 0.06078 -s 2 -d 4 -p ack -e 40 -c 0 -i 29 -a 0 -x {2.0 5.0 -1 ------- null}
r -t 0.0610928 -s 5 -d 0 -p tcp -e 1040 -c 0 -i 18 -a 0 -x {5.0 2.0 11 ------- null}
h -t 0.0610928 -s 0 -d 4 -p tcp -e 1040 -c 0 -i 18 -a 0 -x {5.0 2.0 11 ------- null}
r -t 0.0618352 -s 4 -d 0 -p ack -e 40 -c 0 -i 29 -a 0 -x {2.0 5.0 10 ------- null}
+ -t 0.0618352 -s 0 -d 5 -p ack -e 40 -c 0 -i 29 -a 0 -x {2.0 5.0 10 ------- null}
- -t 0.0618352 -s 0 -d 5 -p ack -e 40 -c 0 -i 29 -a 0 -x {2.0 5.0 10 ------- null}
h -t 0.0618352 -s 0 -d 5 -p ack -e 40 -c 0 -i 29 -a 0 -x {2.0 5.0 -1 ------- null}
+ -t 0.0620928 -s 0 -d 4 -p tcp -e 1040 -c 0 -i 18 -a 0 -x {5.0 2.0 11 ------- null}
- -t 0.0620928 -s 0 -d 4 -p tcp -e 1040 -c 0 -i 18 -a 0 -x {5.0 2.0 11 ------- null}
h -t 0.0620928 -s 0 -d 4 -p tcp -e 1040 -c 0 -i 18 -a 0 -x {5.0 2.0 -1 ------- null}
- -t 0.0632528 -s 5 -d 0 -p tcp -e 1040 -c 0 -i 21 -a 0 -x {5.0 2.0 13 ------- null}
h -t 0.0632528 -s 5 -d 0 -p tcp -e 1040 -c 0 -i 21 -a 0 -x {5.0 2.0 -1 ------- null}
r -t 0.06394 -s 4 -d 2 -p tcp -e 1040 -c 0 -i 18 -a 0 -x {5.0 2.0 11 ------- null}
h -t 0.06394 -s 2 -d 4 -p ack -e 40 -c 0 -i 32 -a 0 -x {2.0 5.0 11 ------- null}
r -t 0.0639952 -s 0 -d 5 -p ack -e 40 -c 0 -i 29 -a 0 -x {2.0 5.0 10 ------- null}
+ -t 0.0639952 -s 5 -d 0 -p tcp -e 1040 -c 0 -i 33 -a 0 -x {5.0 2.0 21 ------- null}
+ -t 0.0639952 -s 5 -d 0 -p tcp -e 1040 -c 0 -i 34 -a 0 -x {5.0 2.0 22 ------- null}
+ -t 0.06494 -s 2 -d 4 -p ack -e 40 -c 0 -i 32 -a 0 -x {2.0 5.0 11 ------- null}
- -t 0.06494 -s 2 -d 4 -p ack -e 40 -c 0 -i 32 -a 0 -x {2.0 5.0 11 ------- null}
h -t 0.06494 -s 2 -d 4 -p ack -e 40 -c 0 -i 32 -a 0 -x {2.0 5.0 -1 ------- null}
r -t 0.0652528 -s 5 -d 0 -p tcp -e 1040 -c 0 -i 19 -a 0 -x {5.0 2.0 12 ------- null}
h -t 0.0652528 -s 0 -d 4 -p tcp -e 1040 -c 0 -i 19 -a 0 -x {5.0 2.0 12 ------- null}
r -t 0.0659952 -s 4 -d 0 -p ack -e 40 -c 0 -i 32 -a 0 -x {2.0 5.0 11 ------- null}
+ -t 0.0659952 -s 0 -d 5 -p ack -e 40 -c 0 -i 32 -a 0 -x {2.0 5.0 11 ------- null}
- -t 0.0659952 -s 0 -d 5 -p ack -e 40 -c 0 -i 32 -a 0 -x {2.0 5.0 11 ------- null}
h -t 0.0659952 -s 0 -d 5 -p ack -e 40 -c 0 -i 32 -a 0 -x {2.0 5.0 -1 ------- null}
+ -t 0.0662528 -s 0 -d 4 -p tcp -e 1040 -c 0 -i 19 -a 0 -x {5.0 2.0 12 ------- null}
- -t 0.0662528 -s 0 -d 4 -p tcp -e 1040 -c 0 -i 19 -a 0 -x {5.0 2.0 12 ------- null}
h -t 0.0662528 -s 0 -d 4 -p tcp -e 1040 -c 0 -i 19 -a 0 -x {5.0 2.0 -1 ------- null}
- -t 0.0674128 -s 5 -d 0 -p tcp -e 1040 -c 0 -i 22 -a 0 -x {5.0 2.0 14 ------- null}
h -t 0.0674128 -s 5 -d 0 -p tcp -e 1040 -c 0 -i 22 -a 0 -x {5.0 2.0 -1 ------- null}
r -t 0.0681 -s 4 -d 2 -p tcp -e 1040 -c 0 -i 19 -a 0 -x {5.0 2.0 12 ------- null}
h -t 0.0681 -s 2 -d 4 -p ack -e 40 -c 0 -i 35 -a 0 -x {2.0 5.0 12 ------- null}
r -t 0.0681552 -s 0 -d 5 -p ack -e 40 -c 0 -i 32 -a 0 -x {2.0 5.0 11 ------- null}
+ -t 0.0681552 -s 5 -d 0 -p tcp -e 1040 -c 0 -i 36 -a 0 -x {5.0 2.0 23 ------- null}
+ -t 0.0681552 -s 5 -d 0 -p tcp -e 1040 -c 0 -i 37 -a 0 -x {5.0 2.0 24 ------- null}
+ -t 0.0691 -s 2 -d 4 -p ack -e 40 -c 0 -i 35 -a 0 -x {2.0 5.0 12 ------- null}
- -t 0.0691 -s 2 -d 4 -p ack -e 40 -c 0 -i 35 -a 0 -x {2.0 5.0 12 ------- null}
h -t 0.0691 -s 2 -d 4 -p ack -e 40 -c 0 -i 35 -a 0 -x {2.0 5.0 -1 ------- null}
r -t 0.0694128 -s 5 -d 0 -p tcp -e 1040 -c 0 -i 21 -a 0 -x {5.0 2.0 13 ------- null}
h -t 0.0694128 -s 0 -d 4 -p tcp -e 1040 -c 0 -i 21 -a 0 -x {5.0 2.0 13 ------- null}
r -t 0.0701552 -s 4 -d 0 -p ack -e 40 -c 0 -i 35 -a 0 -x {2.0 5.0 12 ------- null}
+ -t 0.0701552 -s 0 -d 5 -p ack -e 40 -c 0 -i 35 -a 0 -x {2.0 5.0 12 ------- null}
- -t 0.0701552 -s 0 -d 5 -p ack -e 40 -c 0 -i 35 -a 0 -x {2.0 5.0 12 ------- null}
h -t 0.0701552 -s 0 -d 5 -p ack -e 40 -c 0 -i 35 -a 0 -x {2.0 5.0 -1 ------- null}
+ -t 0.0704128 -s 0 -d 4 -p tcp -e 1040 -c 0 -i 21 -a 0 -x {5.0 2.0 13 ------- null}
- -t 0.0704128 -s 0 -d 4 -p tcp -e 1040 -c 0 -i 21 -a 0 -x {5.0 2.0 13 ------- null}
h -t 0.0704128 -s 0 -d 4 -p tcp -e 1040 -c 0 -i 21 -a 0 -x {5.0 2.0 -1 ------- null}
- -t 0.0715728 -s 5 -d 0 -p tcp -e 1040 -c 0 -i 24 -a 0 -x {5.0 2.0 15 ------- null}
h -t 0.0715728 -s 5 -d 0 -p tcp -e 1040 -c 0 -i 24 -a 0 -x {5.0 2.0 -1 ------- null}
r -t 0.07226 -s 4 -d 2 -p tcp -e 1040 -c 0 -i 21 -a 0 -x {5.0 2.0 13 ------- null}
h -t 0.07226 -s 2 -d 4 -p ack -e 40 -c 0 -i 38 -a 0 -x {2.0 5.0 13 ------- null}
r -t 0.0723152 -s 0 -d 5 -p ack -e 40 -c 0 -i 35 -a 0 -x {2.0 5.0 12 ------- null}
+ -t 0.0723152 -s 5 -d 0 -p tcp -e 1040 -c 0 -i 39 -a 0 -x {5.0 2.0 25 ------- null}
+ -t 0.0723152 -s 5 -d 0 -p tcp -e 1040 -c 0 -i 40 -a 0 -x {5.0 2.0 26 ------- null}
+ -t 0.07326 -s 2 -d 4 -p ack -e 40 -c 0 -i 38 -a 0 -x {2.0 5.0 13 ------- null}
- -t 0.07326 -s 2 -d 4 -p ack -e 40 -c 0 -i 38 -a 0 -x {2.0 5.0 13 ------- null}
h -t 0.07326 -s 2 -d 4 -p ack -e 40 -c 0 -i 38 -a 0 -x {2.0 5.0 -1 ------- null}
r -t 0.0735728 -s 5 -d 0 -p tcp -e 1040 -c 0 -i 22 -a 0 -x {5.0 2.0 14 ------- null}
h -t 0.0735728 -s 0 -d 4 -p tcp -e 1040 -c 0 -i 22 -a 0 -x {5.0 2.0 14 ------- null}
r -t 0.0743152 -s 4 -d 0 -p ack -e 40 -c 0 -i 38 -a 0 -x {2.0 5.0 13 ------- null}
+ -t 0.0743152 -s 0 -d 5 -p ack -e 40 -c 0 -i 38 -a 0 -x {2.0 5.0 13 ------- null}
- -t 0.0743152 -s 0 -d 5 -p ack -e 40 -c 0 -i 38 -a 0 -x {2.0 5.0 13 ------- null}
h -t 0.0743152 -s 0 -d 5 -p ack -e 40 -c 0 -i 38 -a 0 -x {2.0 5.0 -1 ------- null}
+ -t 0.0745728 -s 0 -d 4 -p tcp -e 1040 -c 0 -i 22 -a 0 -x {5.0 2.0 14 ------- null}
- -t 0.0745728 -s 0 -d 4 -p tcp -e 1040 -c 0 -i 22 -a 0 -x {5.0 2.0 14 ------- null}
h -t 0.0745728 -s 0 -d 4 -p tcp -e 1040 -c 0 -i 22 -a 0 -x {5.0 2.0 -1 ------- null}
- -t 0.0757328 -s 5 -d 0 -p tcp -e 1040 -c 0 -i 25 -a 0 -x {5.0 2.0 16 ------- null}
h -t 0.0757328 -s 5 -d 0 -p tcp -e 1040 -c 0 -i 25 -a 0 -x {5.0 2.0 -1 ------- null}
r -t 0.07642 -s 4 -d 2 -p tcp -e 1040 -c 0 -i 22 -a 0 -x {5.0 2.0 14 ------- null}
h -t 0.07642 -s 2 -d 4 -p ack -e 40 -c 0 -i 41 -a 0 -x {2.0 5.0 14 ------- null}
r -t 0.0764752 -s 0 -d 5 -p ack -e 40 -c 0 -i 38 -a 0 -x {2.0 5.0 13 ------- null}
+ -t 0.0764752 -s 5 -d 0 -p tcp -e 1040 -c 0 -i 42 -a 0 -x {5.0 2.0 27 ------- null}
+ -t 0.0764752 -s 5 -d 0 -p tcp -e 1040 -c 0 -i 43 -a 0 -x {5.0 2.0 28 ------- null}
+ -t 0.07742 -s 2 -d 4 -p ack -e 40 -c 0 -i 41 -a 0 -x {2.0 5.0 14 ------- null}
- -t 0.07742 -s 2 -d 4 -p ack -e 40 -c 0 -i 41 -a 0 -x {2.0 5.0 14 ------- null}
h -t 0.07742 -s 2 -d 4 -p ack -e 40 -c 0 -i 41 -a 0 -x {2.0 5.0 -1 ------- null}
r -t 0.0777328 -s 5 -d 0 -p tcp -e 1040 -c 0 -i 24 -a 0 -x {5.0 2.0 15 ------- null}
h -t 0.0777328 -s 0 -d 4 -p tcp -e 1040 -c 0 -i 24 -a 0 -x {5.0 2.0 15 ------- null}
r -t 0.0784752 -s 4 -d 0 -p ack -e 40 -c 0 -i 41 -a 0 -x {2.0 5.0 14 ------- null}
+ -t 0.0784752 -s 0 -d 5 -p ack -e 40 -c 0 -i 41 -a 0 -x {2.0 5.0 14 ------- null}
- -t 0.0784752 -s 0 -d 5 -p ack -e 40 -c 0 -i 41 -a 0 -x {2.0 5.0 14 ------- null}
h -t 0.0784752 -s 0 -d 5 -p ack -e 40 -c 0 -i 41 -a 0 -x {2.0 5.0 -1 ------- null}
+ -t 0.0787328 -s 0 -d 4 -p tcp -e 1040 -c 0 -i 24 -a 0 -x {5.0 2.0 15 ------- null}
- -t 0.0787328 -s 0 -d 4 -p tcp -e 1040 -c 0 -i 24 -a 0 -x {5.0 2.0 15 ------- null}
h -t 0.0787328 -s 0 -d 4 -p tcp -e 1040 -c 0 -i 24 -a 0 -x {5.0 2.0 -1 ------- null}
- -t 0.0798928 -s 5 -d 0 -p tcp -e 1040 -c 0 -i 27 -a 0 -x {5.0 2.0 17 ------- null}
h -t 0.0798928 -s 5 -d 0 -p tcp -e 1040 -c 0 -i 27 -a 0 -x {5.0 2.0 -1 ------- null}
r -t 0.08058 -s 4 -d 2 -p tcp -e 1040 -c 0 -i 24 -a 0 -x {5.0 2.0 15 ------- null}
h -t 0.08058 -s 2 -d 4 -p ack -e 40 -c 0 -i 44 -a 0 -x {2.0 5.0 15 ------- null}
r -t 0.0806352 -s 0 -d 5 -p ack -e 40 -c 0 -i 41 -a 0 -x {2.0 5.0 14 ------- null}
+ -t 0.0806352 -s 5 -d 0 -p tcp -e 1040 -c 0 -i 45 -a 0 -x {5.0 2.0 29 ------- null}
+ -t 0.08158 -s 2 -d 4 -p ack -e 40 -c 0 -i 44 -a 0 -x {2.0 5.0 15 ------- null}
- -t 0.08158 -s 2 -d 4 -p ack -e 40 -c 0 -i 44 -a 0 -x {2.0 5.0 15 ------- null}
h -t 0.08158 -s 2 -d 4 -p ack -e 40 -c 0 -i 44 -a 0 -x {2.0 5.0 -1 ------- null}
r -t 0.0818928 -s 5 -d 0 -p tcp -e 1040 -c 0 -i 25 -a 0 -x {5.0 2.0 16 ------- null}
h -t 0.0818928 -s 0 -d 4 -p tcp -e 1040 -c 0 -i 25 -a 0 -x {5.0 2.0 16 ------- null}
r -t 0.0826352 -s 4 -d 0 -p ack -e 40 -c 0 -i 44 -a 0 -x {2.0 5.0 15 ------- null}
+ -t 0.0826352 -s 0 -d 5 -p ack -e 40 -c 0 -i 44 -a 0 -x {2.0 5.0 15 ------- null}
- -t 0.0826352 -s 0 -d 5 -p ack -e 40 -c 0 -i 44 -a 0 -x {2.0 5.0 15 ------- null}
h -t 0.0826352 -s 0 -d 5 -p ack -e 40 -c 0 -i 44 -a 0 -x {2.0 5.0 -1 ------- null}
+ -t 0.0828928 -s 0 -d 4 -p tcp -e 1040 -c 0 -i 25 -a 0 -x {5.0 2.0 16 ------- null}
- -t 0.0828928 -s 0 -d 4 -p tcp -e 1040 -c 0 -i 25 -a 0 -x {5.0 2.0 16 ------- null}
h -t 0.0828928 -s 0 -d 4 -p tcp -e 1040 -c 0 -i 25 -a 0 -x {5.0 2.0 -1 ------- null}
- -t 0.0840528 -s 5 -d 0 -p tcp -e 1040 -c 0 -i 28 -a 0 -x {5.0 2.0 18 ------- null}
h -t 0.0840528 -s 5 -d 0 -p tcp -e 1040 -c 0 -i 28 -a 0 -x {5.0 2.0 -1 ------- null}
r -t 0.08474 -s 4 -d 2 -p tcp -e 1040 -c 0 -i 25 -a 0 -x {5.0 2.0 16 ------- null}
h -t 0.08474 -s 2 -d 4 -p ack -e 40 -c 0 -i 46 -a 0 -x {2.0 5.0 16 ------- null}
r -t 0.0847952 -s 0 -d 5 -p ack -e 40 -c 0 -i 44 -a 0 -x {2.0 5.0 15 ------- null}
+ -t 0.0847952 -s 5 -d 0 -p tcp -e 1040 -c 0 -i 47 -a 0 -x {5.0 2.0 30 ------- null}
+ -t 0.08574 -s 2 -d 4 -p ack -e 40 -c 0 -i 46 -a 0 -x {2.0 5.0 16 ------- null}
- -t 0.08574 -s 2 -d 4 -p ack -e 40 -c 0 -i 46 -a 0 -x {2.0 5.0 16 ------- null}
h -t 0.08574 -s 2 -d 4 -p ack -e 40 -c 0 -i 46 -a 0 -x {2.0 5.0 -1 ------- null}
r -t 0.0860528 -s 5 -d 0 -p tcp -e 1040 -c 0 -i 27 -a 0 -x {5.0 2.0 17 ------- null}
h -t 0.0860528 -s 0 -d 4 -p tcp -e 1040 -c 0 -i 27 -a 0 -x {5.0 2.0 17 ------- null}
r -t 0.0867952 -s 4 -d 0 -p ack -e 40 -c 0 -i 46 -a 0 -x {2.0 5.0 16 ------- null}
+ -t 0.0867952 -s 0 -d 5 -p ack -e 40 -c 0 -i 46 -a 0 -x {2.0 5.0 16 ------- null}
- -t 0.0867952 -s 0 -d 5 -p ack -e 40 -c 0 -i 46 -a 0 -x {2.0 5.0 16 ------- null}
h -t 0.0867952 -s 0 -d 5 -p ack -e 40 -c 0 -i 46 -a 0 -x {2.0 5.0 -1 ------- null}
+ -t 0.0870528 -s 0 -d 4 -p tcp -e 1040 -c 0 -i 27 -a 0 -x {5.0 2.0 17 ------- null}
- -t 0.0870528 -s 0 -d 4 -p tcp -e 1040 -c 0 -i 27 -a 0 -x {5.0 2.0 17 ------- null}
h -t 0.0870528 -s 0 -d 4 -p tcp -e 1040 -c 0 -i 27 -a 0 -x {5.0 2.0 -1 ------- null}
- -t 0.0882128 -s 5 -d 0 -p tcp -e 1040 -c 0 -i 30 -a 0 -x {5.0 2.0 19 ------- null}
h -t 0.0882128 -s 5 -d 0 -p tcp -e 1040 -c 0 -i 30 -a 0 -x {5.0 2.0 -1 ------- null}
r -t 0.0889 -s 4 -d 2 -p tcp -e 1040 -c 0 -i 27 -a 0 -x {5.0 2.0 17 ------- null}
h -t 0.0889 -s 2 -d 4 -p ack -e 40 -c 0 -i 48 -a 0 -x {2.0 5.0 17 ------- null}
r -t 0.0889552 -s 0 -d 5 -p ack -e 40 -c 0 -i 46 -a 0 -x {2.0 5.0 16 ------- null}
+ -t 0.0889552 -s 5 -d 0 -p tcp -e 1040 -c 0 -i 49 -a 0 -x {5.0 2.0 31 ------- null}
+ -t 0.0899 -s 2 -d 4 -p ack -e 40 -c 0 -i 48 -a 0 -x {2.0 5.0 17 ------- null}
- -t 0.0899 -s 2 -d 4 -p ack -e 40 -c 0 -i 48 -a 0 -x {2.0 5.0 17 ------- null}
h -t 0.0899 -s 2 -d 4 -p ack -e 40 -c 0 -i 48 -a 0 -x {2.0 5.0 -1 ------- null}
r -t 0.0902128 -s 5 -d 0 -p tcp -e 1040 -c 0 -i 28 -a 0 -x {5.0 2.0 18 ------- null}
h -t 0.0902128 -s 0 -d 4 -p tcp -e 1040 -c 0 -i 28 -a 0 -x {5.0 2.0 18 ------- null}
r -t 0.0909552 -s 4 -d 0 -p ack -e 40 -c 0 -i 48 -a 0 -x {2.0 5.0 17 ------- null}
+ -t 0.0909552 -s 0 -d 5 -p ack -e 40 -c 0 -i 48 -a 0 -x {2.0 5.0 17 ------- null}
- -t 0.0909552 -s 0 -d 5 -p ack -e 40 -c 0 -i 48 -a 0 -x {2.0 5.0 17 ------- null}
h -t 0.0909552 -s 0 -d 5 -p ack -e 40 -c 0 -i 48 -a 0 -x {2.0 5.0 -1 ------- null}
+ -t 0.0912128 -s 0 -d 4 -p tcp -e 1040 -c 0 -i 28 -a 0 -x {5.0 2.0 18 ------- null}
- -t 0.0912128 -s 0 -d 4 -p tcp -e 1040 -c 0 -i 28 -a 0 -x {5.0 2.0 18 ------- null}
h -t 0.0912128 -s 0 -d 4 -p tcp -e 1040 -c 0 -i 28 -a 0 -x {5.0 2.0 -1 ------- null}
- -t 0.0923728 -s 5 -d 0 -p tcp -e 1040 -c 0 -i 31 -a 0 -x {5.0 2.0 20 ------- null}
h -t 0.0923728 -s 5 -d 0 -p tcp -e 1040 -c 0 -i 31 -a 0 -x {5.0 2.0 -1 ------- null}
r -t 0.09306 -s 4 -d 2 -p tcp -e 1040 -c 0 -i 28 -a 0 -x {5.0 2.0 18 ------- null}
h -t 0.09306 -s 2 -d 4 -p ack -e 40 -c 0 -i 50 -a 0 -x {2.0 5.0 18 ------- null}
r -t 0.0931152 -s 0 -d 5 -p ack -e 40 -c 0 -i 48 -a 0 -x {2.0 5.0 17 ------- null}
+ -t 0.0931152 -s 5 -d 0 -p tcp -e 1040 -c 0 -i 51 -a 0 -x {5.0 2.0 32 ------- null}